File written on 30Mar2016 at 16:06:01 

calc_only_A  :  F

begin real_lattice
   3.6006598   0.0000000   0.0000000
  -1.8003299   3.1182628   0.0000000
   0.0000000   0.0000000  20.0000000
end real_lattice

begin recip_lattice
   1.7450095   1.0074817   0.0000000
   0.0000000   2.0149634   0.0000000
   0.0000000   0.0000000   0.3141593
end recip_lattice

begin kpoints
   196
    0.00000000    0.00000000    0.00000000
    0.00000000    0.07142857    0.00000000
    0.00000000    0.14285714    0.00000000
    0.00000000    0.21428571    0.00000000
    0.00000000    0.28571429    0.00000000
    0.00000000    0.35714286    0.00000000
    0.00000000    0.42857143    0.00000000
    0.00000000    0.50000000    0.00000000
    0.00000000    0.57142857    0.00000000
    0.00000000    0.64285714    0.00000000
    0.00000000    0.71428571    0.00000000
    0.00000000    0.78571429    0.00000000
    0.00000000    0.85714286    0.00000000
    0.00000000    0.92857143    0.00000000
    0.07142857    0.00000000    0.00000000
    0.07142857    0.07142857    0.00000000
    0.07142857    0.14285714    0.00000000
    0.07142857    0.21428571    0.00000000
    0.07142857    0.28571429    0.00000000
    0.07142857    0.35714286    0.00000000
    0.07142857    0.42857143    0.00000000
    0.07142857    0.50000000    0.00000000
    0.07142857    0.57142857    0.00000000
    0.07142857    0.64285714    0.00000000
    0.07142857    0.71428571    0.00000000
    0.07142857    0.78571429    0.00000000
    0.07142857    0.85714286    0.00000000
    0.07142857    0.92857143    0.00000000
    0.14285714    0.00000000    0.00000000
    0.14285714    0.07142857    0.00000000
    0.14285714    0.14285714    0.00000000
    0.14285714    0.21428571    0.00000000
    0.14285714    0.28571429    0.00000000
    0.14285714    0.35714286    0.00000000
    0.14285714    0.42857143    0.00000000
    0.14285714    0.50000000    0.00000000
    0.14285714    0.57142857    0.00000000
    0.14285714    0.64285714    0.00000000
    0.14285714    0.71428571    0.00000000
    0.14285714    0.78571429    0.00000000
    0.14285714    0.85714286    0.00000000
    0.14285714    0.92857143    0.00000000
    0.21428571    0.00000000    0.00000000
    0.21428571    0.07142857    0.00000000
    0.21428571    0.14285714    0.00000000
    0.21428571    0.21428571    0.00000000
    0.21428571    0.28571429    0.00000000
    0.21428571    0.35714286    0.00000000
    0.21428571    0.42857143    0.00000000
    0.21428571    0.50000000    0.00000000
    0.21428571    0.57142857    0.00000000
    0.21428571    0.64285714    0.00000000
    0.21428571    0.71428571    0.00000000
    0.21428571    0.78571429    0.00000000
    0.21428571    0.85714286    0.00000000
    0.21428571    0.92857143    0.00000000
    0.28571429    0.00000000    0.00000000
    0.28571429    0.07142857    0.00000000
    0.28571429    0.14285714    0.00000000
    0.28571429    0.21428571    0.00000000
    0.28571429    0.28571429    0.00000000
    0.28571429    0.35714286    0.00000000
    0.28571429    0.42857143    0.00000000
    0.28571429    0.50000000    0.00000000
    0.28571429    0.57142857    0.00000000
    0.28571429    0.64285714    0.00000000
    0.28571429    0.71428571    0.00000000
    0.28571429    0.78571429    0.00000000
    0.28571429    0.85714286    0.00000000
    0.28571429    0.92857143    0.00000000
    0.35714286    0.00000000    0.00000000
    0.35714286    0.07142857    0.00000000
    0.35714286    0.14285714    0.00000000
    0.35714286    0.21428571    0.00000000
    0.35714286    0.28571429    0.00000000
    0.35714286    0.35714286    0.00000000
    0.35714286    0.42857143    0.00000000
    0.35714286    0.50000000    0.00000000
    0.35714286    0.57142857    0.00000000
    0.35714286    0.64285714    0.00000000
    0.35714286    0.71428571    0.00000000
    0.35714286    0.78571429    0.00000000
    0.35714286    0.85714286    0.00000000
    0.35714286    0.92857143    0.00000000
    0.42857143    0.00000000    0.00000000
    0.42857143    0.07142857    0.00000000
    0.42857143    0.14285714    0.00000000
    0.42857143    0.21428571    0.00000000
    0.42857143    0.28571429    0.00000000
    0.42857143    0.35714286    0.00000000
    0.42857143    0.42857143    0.00000000
    0.42857143    0.50000000    0.00000000
    0.42857143    0.57142857    0.00000000
    0.42857143    0.64285714    0.00000000
    0.42857143    0.71428571    0.00000000
    0.42857143    0.78571429    0.00000000
    0.42857143    0.85714286    0.00000000
    0.42857143    0.92857143    0.00000000
    0.50000000    0.00000000    0.00000000
    0.50000000    0.07142857    0.00000000
    0.50000000    0.14285714    0.00000000
    0.50000000    0.21428571    0.00000000
    0.50000000    0.28571429    0.00000000
    0.50000000    0.35714286    0.00000000
    0.50000000    0.42857143    0.00000000
    0.50000000    0.50000000    0.00000000
    0.50000000    0.57142857    0.00000000
    0.50000000    0.64285714    0.00000000
    0.50000000    0.71428571    0.00000000
    0.50000000    0.78571429    0.00000000
    0.50000000    0.85714286    0.00000000
    0.50000000    0.92857143    0.00000000
    0.57142857    0.00000000    0.00000000
    0.57142857    0.07142857    0.00000000
    0.57142857    0.14285714    0.00000000
    0.57142857    0.21428571    0.00000000
    0.57142857    0.28571429    0.00000000
    0.57142857    0.35714286    0.00000000
    0.57142857    0.42857143    0.00000000
    0.57142857    0.50000000    0.00000000
    0.57142857    0.57142857    0.00000000
    0.57142857    0.64285714    0.00000000
    0.57142857    0.71428571    0.00000000
    0.57142857    0.78571429    0.00000000
    0.57142857    0.85714286    0.00000000
    0.57142857    0.92857143    0.00000000
    0.64285714    0.00000000    0.00000000
    0.64285714    0.07142857    0.00000000
    0.64285714    0.14285714    0.00000000
    0.64285714    0.21428571    0.00000000
    0.64285714    0.28571429    0.00000000
    0.64285714    0.35714286    0.00000000
    0.64285714    0.42857143    0.00000000
    0.64285714    0.50000000    0.00000000
    0.64285714    0.57142857    0.00000000
    0.64285714    0.64285714    0.00000000
    0.64285714    0.71428571    0.00000000
    0.64285714    0.78571429    0.00000000
    0.64285714    0.85714286    0.00000000
    0.64285714    0.92857143    0.00000000
    0.71428571    0.00000000    0.00000000
    0.71428571    0.07142857    0.00000000
    0.71428571    0.14285714    0.00000000
    0.71428571    0.21428571    0.00000000
    0.71428571    0.28571429    0.00000000
    0.71428571    0.35714286    0.00000000
    0.71428571    0.42857143    0.00000000
    0.71428571    0.50000000    0.00000000
    0.71428571    0.57142857    0.00000000
    0.71428571    0.64285714    0.00000000
    0.71428571    0.71428571    0.00000000
    0.71428571    0.78571429    0.00000000
    0.71428571    0.85714286    0.00000000
    0.71428571    0.92857143    0.00000000
    0.78571429    0.00000000    0.00000000
    0.78571429    0.07142857    0.00000000
    0.78571429    0.14285714    0.00000000
    0.78571429    0.21428571    0.00000000
    0.78571429    0.28571429    0.00000000
    0.78571429    0.35714286    0.00000000
    0.78571429    0.42857143    0.00000000
    0.78571429    0.50000000    0.00000000
    0.78571429    0.57142857    0.00000000
    0.78571429    0.64285714    0.00000000
    0.78571429    0.71428571    0.00000000
    0.78571429    0.78571429    0.00000000
    0.78571429    0.85714286    0.00000000
    0.78571429    0.92857143    0.00000000
    0.85714286    0.00000000    0.00000000
    0.85714286    0.07142857    0.00000000
    0.85714286    0.14285714    0.00000000
    0.85714286    0.21428571    0.00000000
    0.85714286    0.28571429    0.00000000
    0.85714286    0.35714286    0.00000000
    0.85714286    0.42857143    0.00000000
    0.85714286    0.50000000    0.00000000
    0.85714286    0.57142857    0.00000000
    0.85714286    0.64285714    0.00000000
    0.85714286    0.71428571    0.00000000
    0.85714286    0.78571429    0.00000000
    0.85714286    0.85714286    0.00000000
    0.85714286    0.92857143    0.00000000
    0.92857143    0.00000000    0.00000000
    0.92857143    0.07142857    0.00000000
    0.92857143    0.14285714    0.00000000
    0.92857143    0.21428571    0.00000000
    0.92857143    0.28571429    0.00000000
    0.92857143    0.35714286    0.00000000
    0.92857143    0.42857143    0.00000000
    0.92857143    0.50000000    0.00000000
    0.92857143    0.57142857    0.00000000
    0.92857143    0.64285714    0.00000000
    0.92857143    0.71428571    0.00000000
    0.92857143    0.78571429    0.00000000
    0.92857143    0.85714286    0.00000000
    0.92857143    0.92857143    0.00000000
end kpoints

begin spinor_projections
    12
   0.33333    0.66667    0.46516     1  1  1
    0.0000000  0.0000000  1.0000000   1.0000000  0.0000000  0.0000000    1.00
    1   0.0000000  0.0000000  1.0000000
   0.33333    0.66667    0.46516     1  1  1
    0.0000000  0.0000000  1.0000000   1.0000000  0.0000000  0.0000000    1.00
   -1   0.0000000  0.0000000  1.0000000
   0.33333    0.66667    0.46516     1  2  1
    0.0000000  0.0000000  1.0000000   1.0000000  0.0000000  0.0000000    1.00
    1   0.0000000  0.0000000  1.0000000
   0.33333    0.66667    0.46516     1  2  1
    0.0000000  0.0000000  1.0000000   1.0000000  0.0000000  0.0000000    1.00
   -1   0.0000000  0.0000000  1.0000000
   0.33333    0.66667    0.46516     1  3  1
    0.0000000  0.0000000  1.0000000   1.0000000  0.0000000  0.0000000    1.00
    1   0.0000000  0.0000000  1.0000000
   0.33333    0.66667    0.46516     1  3  1
    0.0000000  0.0000000  1.0000000   1.0000000  0.0000000  0.0000000    1.00
   -1   0.0000000  0.0000000  1.0000000
   0.66667    0.33333    0.53484     1  1  1
    0.0000000  0.0000000  1.0000000   1.0000000  0.0000000  0.0000000    1.00
    1   0.0000000  0.0000000  1.0000000
   0.66667    0.33333    0.53484     1  1  1
    0.0000000  0.0000000  1.0000000   1.0000000  0.0000000  0.0000000    1.00
   -1   0.0000000  0.0000000  1.0000000
   0.66667    0.33333    0.53484     1  2  1
    0.0000000  0.0000000  1.0000000   1.0000000  0.0000000  0.0000000    1.00
    1   0.0000000  0.0000000  1.0000000
   0.66667    0.33333    0.53484     1  2  1
    0.0000000  0.0000000  1.0000000   1.0000000  0.0000000  0.0000000    1.00
   -1   0.0000000  0.0000000  1.0000000
   0.66667    0.33333    0.53484     1  3  1
    0.0000000  0.0000000  1.0000000   1.0000000  0.0000000  0.0000000    1.00
    1   0.0000000  0.0000000  1.0000000
   0.66667    0.33333    0.53484     1  3  1
    0.0000000  0.0000000  1.0000000   1.0000000  0.0000000  0.0000000    1.00
   -1   0.0000000  0.0000000  1.0000000
end spinor_projections

begin nnkpts
   8
     1     2      0   0   0
     1    15      0   0   0
     1    14      0  -1   0
     1    28      0  -1   0
     1   183     -1   0   0
     1   184     -1   0   0
     1     1      0   0   1
     1     1      0   0  -1
     2     1      0   0   0
     2     3      0   0   0
     2    15      0   0   0
     2    16      0   0   0
     2   184     -1   0   0
     2   185     -1   0   0
     2     2      0   0   1
     2     2      0   0  -1
     3     2      0   0   0
     3     4      0   0   0
     3    16      0   0   0
     3    17      0   0   0
     3   185     -1   0   0
     3   186     -1   0   0
     3     3      0   0   1
     3     3      0   0  -1
     4     3      0   0   0
     4     5      0   0   0
     4    17      0   0   0
     4    18      0   0   0
     4   186     -1   0   0
     4   187     -1   0   0
     4     4      0   0   1
     4     4      0   0  -1
     5     4      0   0   0
     5     6      0   0   0
     5    18      0   0   0
     5    19      0   0   0
     5   187     -1   0   0
     5   188     -1   0   0
     5     5      0   0   1
     5     5      0   0  -1
     6     5      0   0   0
     6     7      0   0   0
     6    19      0   0   0
     6    20      0   0   0
     6   188     -1   0   0
     6   189     -1   0   0
     6     6      0   0   1
     6     6      0   0  -1
     7     6      0   0   0
     7     8      0   0   0
     7    20      0   0   0
     7    21      0   0   0
     7   189     -1   0   0
     7   190     -1   0   0
     7     7      0   0   1
     7     7      0   0  -1
     8     7      0   0   0
     8     9      0   0   0
     8    21      0   0   0
     8    22      0   0   0
     8   190     -1   0   0
     8   191     -1   0   0
     8     8      0   0   1
     8     8      0   0  -1
     9     8      0   0   0
     9    10      0   0   0
     9    22      0   0   0
     9    23      0   0   0
     9   191     -1   0   0
     9   192     -1   0   0
     9     9      0   0   1
     9     9      0   0  -1
    10     9      0   0   0
    10    11      0   0   0
    10    23      0   0   0
    10    24      0   0   0
    10   192     -1   0   0
    10   193     -1   0   0
    10    10      0   0   1
    10    10      0   0  -1
    11    10      0   0   0
    11    12      0   0   0
    11    24      0   0   0
    11    25      0   0   0
    11   193     -1   0   0
    11   194     -1   0   0
    11    11      0   0   1
    11    11      0   0  -1
    12    11      0   0   0
    12    13      0   0   0
    12    25      0   0   0
    12    26      0   0   0
    12   194     -1   0   0
    12   195     -1   0   0
    12    12      0   0   1
    12    12      0   0  -1
    13    12      0   0   0
    13    14      0   0   0
    13    26      0   0   0
    13    27      0   0   0
    13   195     -1   0   0
    13   196     -1   0   0
    13    13      0   0   1
    13    13      0   0  -1
    14    13      0   0   0
    14    27      0   0   0
    14    28      0   0   0
    14     1      0   1   0
    14   183     -1   1   0
    14   196     -1   0   0
    14    14      0   0   1
    14    14      0   0  -1
    15     1      0   0   0
    15     2      0   0   0
    15    16      0   0   0
    15    29      0   0   0
    15    28      0  -1   0
    15    42      0  -1   0
    15    15      0   0   1
    15    15      0   0  -1
    16     2      0   0   0
    16     3      0   0   0
    16    15      0   0   0
    16    17      0   0   0
    16    29      0   0   0
    16    30      0   0   0
    16    16      0   0   1
    16    16      0   0  -1
    17     3      0   0   0
    17     4      0   0   0
    17    16      0   0   0
    17    18      0   0   0
    17    30      0   0   0
    17    31      0   0   0
    17    17      0   0   1
    17    17      0   0  -1
    18     4      0   0   0
    18     5      0   0   0
    18    17      0   0   0
    18    19      0   0   0
    18    31      0   0   0
    18    32      0   0   0
    18    18      0   0   1
    18    18      0   0  -1
    19     5      0   0   0
    19     6      0   0   0
    19    18      0   0   0
    19    20      0   0   0
    19    32      0   0   0
    19    33      0   0   0
    19    19      0   0   1
    19    19      0   0  -1
    20     6      0   0   0
    20     7      0   0   0
    20    19      0   0   0
    20    21      0   0   0
    20    33      0   0   0
    20    34      0   0   0
    20    20      0   0   1
    20    20      0   0  -1
    21     7      0   0   0
    21     8      0   0   0
    21    20      0   0   0
    21    22      0   0   0
    21    34      0   0   0
    21    35      0   0   0
    21    21      0   0   1
    21    21      0   0  -1
    22     8      0   0   0
    22     9      0   0   0
    22    21      0   0   0
    22    23      0   0   0
    22    35      0   0   0
    22    36      0   0   0
    22    22      0   0   1
    22    22      0   0  -1
    23     9      0   0   0
    23    10      0   0   0
    23    22      0   0   0
    23    24      0   0   0
    23    36      0   0   0
    23    37      0   0   0
    23    23      0   0   1
    23    23      0   0  -1
    24    10      0   0   0
    24    11      0   0   0
    24    23      0   0   0
    24    25      0   0   0
    24    37      0   0   0
    24    38      0   0   0
    24    24      0   0   1
    24    24      0   0  -1
    25    11      0   0   0
    25    12      0   0   0
    25    24      0   0   0
    25    26      0   0   0
    25    38      0   0   0
    25    39      0   0   0
    25    25      0   0   1
    25    25      0   0  -1
    26    12      0   0   0
    26    13      0   0   0
    26    25      0   0   0
    26    27      0   0   0
    26    39      0   0   0
    26    40      0   0   0
    26    26      0   0   1
    26    26      0   0  -1
    27    13      0   0   0
    27    14      0   0   0
    27    26      0   0   0
    27    28      0   0   0
    27    40      0   0   0
    27    41      0   0   0
    27    27      0   0   1
    27    27      0   0  -1
    28    14      0   0   0
    28    27      0   0   0
    28    41      0   0   0
    28    42      0   0   0
    28     1      0   1   0
    28    15      0   1   0
    28    28      0   0   1
    28    28      0   0  -1
    29    15      0   0   0
    29    16      0   0   0
    29    30      0   0   0
    29    43      0   0   0
    29    42      0  -1   0
    29    56      0  -1   0
    29    29      0   0   1
    29    29      0   0  -1
    30    16      0   0   0
    30    17      0   0   0
    30    29      0   0   0
    30    31      0   0   0
    30    43      0   0   0
    30    44      0   0   0
    30    30      0   0   1
    30    30      0   0  -1
    31    17      0   0   0
    31    18      0   0   0
    31    30      0   0   0
    31    32      0   0   0
    31    44      0   0   0
    31    45      0   0   0
    31    31      0   0   1
    31    31      0   0  -1
    32    18      0   0   0
    32    19      0   0   0
    32    31      0   0   0
    32    33      0   0   0
    32    45      0   0   0
    32    46      0   0   0
    32    32      0   0   1
    32    32      0   0  -1
    33    19      0   0   0
    33    20      0   0   0
    33    32      0   0   0
    33    34      0   0   0
    33    46      0   0   0
    33    47      0   0   0
    33    33      0   0   1
    33    33      0   0  -1
    34    20      0   0   0
    34    21      0   0   0
    34    33      0   0   0
    34    35      0   0   0
    34    47      0   0   0
    34    48      0   0   0
    34    34      0   0   1
    34    34      0   0  -1
    35    21      0   0   0
    35    22      0   0   0
    35    34      0   0   0
    35    36      0   0   0
    35    48      0   0   0
    35    49      0   0   0
    35    35      0   0   1
    35    35      0   0  -1
    36    22      0   0   0
    36    23      0   0   0
    36    35      0   0   0
    36    37      0   0   0
    36    49      0   0   0
    36    50      0   0   0
    36    36      0   0   1
    36    36      0   0  -1
    37    23      0   0   0
    37    24      0   0   0
    37    36      0   0   0
    37    38      0   0   0
    37    50      0   0   0
    37    51      0   0   0
    37    37      0   0   1
    37    37      0   0  -1
    38    24      0   0   0
    38    25      0   0   0
    38    37      0   0   0
    38    39      0   0   0
    38    51      0   0   0
    38    52      0   0   0
    38    38      0   0   1
    38    38      0   0  -1
    39    25      0   0   0
    39    26      0   0   0
    39    38      0   0   0
    39    40      0   0   0
    39    52      0   0   0
    39    53      0   0   0
    39    39      0   0   1
    39    39      0   0  -1
    40    26      0   0   0
    40    27      0   0   0
    40    39      0   0   0
    40    41      0   0   0
    40    53      0   0   0
    40    54      0   0   0
    40    40      0   0   1
    40    40      0   0  -1
    41    27      0   0   0
    41    28      0   0   0
    41    40      0   0   0
    41    42      0   0   0
    41    54      0   0   0
    41    55      0   0   0
    41    41      0   0   1
    41    41      0   0  -1
    42    28      0   0   0
    42    41      0   0   0
    42    55      0   0   0
    42    56      0   0   0
    42    15      0   1   0
    42    29      0   1   0
    42    42      0   0   1
    42    42      0   0  -1
    43    29      0   0   0
    43    30      0   0   0
    43    44      0   0   0
    43    57      0   0   0
    43    56      0  -1   0
    43    70      0  -1   0
    43    43      0   0   1
    43    43      0   0  -1
    44    30      0   0   0
    44    31      0   0   0
    44    43      0   0   0
    44    45      0   0   0
    44    57      0   0   0
    44    58      0   0   0
    44    44      0   0   1
    44    44      0   0  -1
    45    31      0   0   0
    45    32      0   0   0
    45    44      0   0   0
    45    46      0   0   0
    45    58      0   0   0
    45    59      0   0   0
    45    45      0   0   1
    45    45      0   0  -1
    46    32      0   0   0
    46    33      0   0   0
    46    45      0   0   0
    46    47      0   0   0
    46    59      0   0   0
    46    60      0   0   0
    46    46      0   0   1
    46    46      0   0  -1
    47    33      0   0   0
    47    34      0   0   0
    47    46      0   0   0
    47    48      0   0   0
    47    60      0   0   0
    47    61      0   0   0
    47    47      0   0   1
    47    47      0   0  -1
    48    34      0   0   0
    48    35      0   0   0
    48    47      0   0   0
    48    49      0   0   0
    48    61      0   0   0
    48    62      0   0   0
    48    48      0   0   1
    48    48      0   0  -1
    49    35      0   0   0
    49    36      0   0   0
    49    48      0   0   0
    49    50      0   0   0
    49    62      0   0   0
    49    63      0   0   0
    49    49      0   0   1
    49    49      0   0  -1
    50    36      0   0   0
    50    37      0   0   0
    50    49      0   0   0
    50    51      0   0   0
    50    63      0   0   0
    50    64      0   0   0
    50    50      0   0   1
    50    50      0   0  -1
    51    37      0   0   0
    51    38      0   0   0
    51    50      0   0   0
    51    52      0   0   0
    51    64      0   0   0
    51    65      0   0   0
    51    51      0   0   1
    51    51      0   0  -1
    52    38      0   0   0
    52    39      0   0   0
    52    51      0   0   0
    52    53      0   0   0
    52    65      0   0   0
    52    66      0   0   0
    52    52      0   0   1
    52    52      0   0  -1
    53    39      0   0   0
    53    40      0   0   0
    53    52      0   0   0
    53    54      0   0   0
    53    66      0   0   0
    53    67      0   0   0
    53    53      0   0   1
    53    53      0   0  -1
    54    40      0   0   0
    54    41      0   0   0
    54    53      0   0   0
    54    55      0   0   0
    54    67      0   0   0
    54    68      0   0   0
    54    54      0   0   1
    54    54      0   0  -1
    55    41      0   0   0
    55    42      0   0   0
    55    54      0   0   0
    55    56      0   0   0
    55    68      0   0   0
    55    69      0   0   0
    55    55      0   0   1
    55    55      0   0  -1
    56    42      0   0   0
    56    55      0   0   0
    56    69      0   0   0
    56    70      0   0   0
    56    29      0   1   0
    56    43      0   1   0
    56    56      0   0   1
    56    56      0   0  -1
    57    43      0   0   0
    57    44      0   0   0
    57    58      0   0   0
    57    71      0   0   0
    57    70      0  -1   0
    57    84      0  -1   0
    57    57      0   0   1
    57    57      0   0  -1
    58    44      0   0   0
    58    45      0   0   0
    58    57      0   0   0
    58    59      0   0   0
    58    71      0   0   0
    58    72      0   0   0
    58    58      0   0   1
    58    58      0   0  -1
    59    45      0   0   0
    59    46      0   0   0
    59    58      0   0   0
    59    60      0   0   0
    59    72      0   0   0
    59    73      0   0   0
    59    59      0   0   1
    59    59      0   0  -1
    60    46      0   0   0
    60    47      0   0   0
    60    59      0   0   0
    60    61      0   0   0
    60    73      0   0   0
    60    74      0   0   0
    60    60      0   0   1
    60    60      0   0  -1
    61    47      0   0   0
    61    48      0   0   0
    61    60      0   0   0
    61    62      0   0   0
    61    74      0   0   0
    61    75      0   0   0
    61    61      0   0   1
    61    61      0   0  -1
    62    48      0   0   0
    62    49      0   0   0
    62    61      0   0   0
    62    63      0   0   0
    62    75      0   0   0
    62    76      0   0   0
    62    62      0   0   1
    62    62      0   0  -1
    63    49      0   0   0
    63    50      0   0   0
    63    62      0   0   0
    63    64      0   0   0
    63    76      0   0   0
    63    77      0   0   0
    63    63      0   0   1
    63    63      0   0  -1
    64    50      0   0   0
    64    51      0   0   0
    64    63      0   0   0
    64    65      0   0   0
    64    77      0   0   0
    64    78      0   0   0
    64    64      0   0   1
    64    64      0   0  -1
    65    51      0   0   0
    65    52      0   0   0
    65    64      0   0   0
    65    66      0   0   0
    65    78      0   0   0
    65    79      0   0   0
    65    65      0   0   1
    65    65      0   0  -1
    66    52      0   0   0
    66    53      0   0   0
    66    65      0   0   0
    66    67      0   0   0
    66    79      0   0   0
    66    80      0   0   0
    66    66      0   0   1
    66    66      0   0  -1
    67    53      0   0   0
    67    54      0   0   0
    67    66      0   0   0
    67    68      0   0   0
    67    80      0   0   0
    67    81      0   0   0
    67    67      0   0   1
    67    67      0   0  -1
    68    54      0   0   0
    68    55      0   0   0
    68    67      0   0   0
    68    69      0   0   0
    68    81      0   0   0
    68    82      0   0   0
    68    68      0   0   1
    68    68      0   0  -1
    69    55      0   0   0
    69    56      0   0   0
    69    68      0   0   0
    69    70      0   0   0
    69    82      0   0   0
    69    83      0   0   0
    69    69      0   0   1
    69    69      0   0  -1
    70    56      0   0   0
    70    69      0   0   0
    70    83      0   0   0
    70    84      0   0   0
    70    43      0   1   0
    70    57      0   1   0
    70    70      0   0   1
    70    70      0   0  -1
    71    57      0   0   0
    71    58      0   0   0
    71    72      0   0   0
    71    85      0   0   0
    71    84      0  -1   0
    71    98      0  -1   0
    71    71      0   0   1
    71    71      0   0  -1
    72    58      0   0   0
    72    59      0   0   0
    72    71      0   0   0
    72    73      0   0   0
    72    85      0   0   0
    72    86      0   0   0
    72    72      0   0   1
    72    72      0   0  -1
    73    59      0   0   0
    73    60      0   0   0
    73    72      0   0   0
    73    74      0   0   0
    73    86      0   0   0
    73    87      0   0   0
    73    73      0   0   1
    73    73      0   0  -1
    74    60      0   0   0
    74    61      0   0   0
    74    73      0   0   0
    74    75      0   0   0
    74    87      0   0   0
    74    88      0   0   0
    74    74      0   0   1
    74    74      0   0  -1
    75    61      0   0   0
    75    62      0   0   0
    75    74      0   0   0
    75    76      0   0   0
    75    88      0   0   0
    75    89      0   0   0
    75    75      0   0   1
    75    75      0   0  -1
    76    62      0   0   0
    76    63      0   0   0
    76    75      0   0   0
    76    77      0   0   0
    76    89      0   0   0
    76    90      0   0   0
    76    76      0   0   1
    76    76      0   0  -1
    77    63      0   0   0
    77    64      0   0   0
    77    76      0   0   0
    77    78      0   0   0
    77    90      0   0   0
    77    91      0   0   0
    77    77      0   0   1
    77    77      0   0  -1
    78    64      0   0   0
    78    65      0   0   0
    78    77      0   0   0
    78    79      0   0   0
    78    91      0   0   0
    78    92      0   0   0
    78    78      0   0   1
    78    78      0   0  -1
    79    65      0   0   0
    79    66      0   0   0
    79    78      0   0   0
    79    80      0   0   0
    79    92      0   0   0
    79    93      0   0   0
    79    79      0   0   1
    79    79      0   0  -1
    80    66      0   0   0
    80    67      0   0   0
    80    79      0   0   0
    80    81      0   0   0
    80    93      0   0   0
    80    94      0   0   0
    80    80      0   0   1
    80    80      0   0  -1
    81    67      0   0   0
    81    68      0   0   0
    81    80      0   0   0
    81    82      0   0   0
    81    94      0   0   0
    81    95      0   0   0
    81    81      0   0   1
    81    81      0   0  -1
    82    68      0   0   0
    82    69      0   0   0
    82    81      0   0   0
    82    83      0   0   0
    82    95      0   0   0
    82    96      0   0   0
    82    82      0   0   1
    82    82      0   0  -1
    83    69      0   0   0
    83    70      0   0   0
    83    82      0   0   0
    83    84      0   0   0
    83    96      0   0   0
    83    97      0   0   0
    83    83      0   0   1
    83    83      0   0  -1
    84    70      0   0   0
    84    83      0   0   0
    84    97      0   0   0
    84    98      0   0   0
    84    57      0   1   0
    84    71      0   1   0
    84    84      0   0   1
    84    84      0   0  -1
    85    71      0   0   0
    85    72      0   0   0
    85    86      0   0   0
    85    99      0   0   0
    85    98      0  -1   0
    85   112      0  -1   0
    85    85      0   0   1
    85    85      0   0  -1
    86    72      0   0   0
    86    73      0   0   0
    86    85      0   0   0
    86    87      0   0   0
    86    99      0   0   0
    86   100      0   0   0
    86    86      0   0   1
    86    86      0   0  -1
    87    73      0   0   0
    87    74      0   0   0
    87    86      0   0   0
    87    88      0   0   0
    87   100      0   0   0
    87   101      0   0   0
    87    87      0   0   1
    87    87      0   0  -1
    88    74      0   0   0
    88    75      0   0   0
    88    87      0   0   0
    88    89      0   0   0
    88   101      0   0   0
    88   102      0   0   0
    88    88      0   0   1
    88    88      0   0  -1
    89    75      0   0   0
    89    76      0   0   0
    89    88      0   0   0
    89    90      0   0   0
    89   102      0   0   0
    89   103      0   0   0
    89    89      0   0   1
    89    89      0   0  -1
    90    76      0   0   0
    90    77      0   0   0
    90    89      0   0   0
    90    91      0   0   0
    90   103      0   0   0
    90   104      0   0   0
    90    90      0   0   1
    90    90      0   0  -1
    91    77      0   0   0
    91    78      0   0   0
    91    90      0   0   0
    91    92      0   0   0
    91   104      0   0   0
    91   105      0   0   0
    91    91      0   0   1
    91    91      0   0  -1
    92    78      0   0   0
    92    79      0   0   0
    92    91      0   0   0
    92    93      0   0   0
    92   105      0   0   0
    92   106      0   0   0
    92    92      0   0   1
    92    92      0   0  -1
    93    79      0   0   0
    93    80      0   0   0
    93    92      0   0   0
    93    94      0   0   0
    93   106      0   0   0
    93   107      0   0   0
    93    93      0   0   1
    93    93      0   0  -1
    94    80      0   0   0
    94    81      0   0   0
    94    93      0   0   0
    94    95      0   0   0
    94   107      0   0   0
    94   108      0   0   0
    94    94      0   0   1
    94    94      0   0  -1
    95    81      0   0   0
    95    82      0   0   0
    95    94      0   0   0
    95    96      0   0   0
    95   108      0   0   0
    95   109      0   0   0
    95    95      0   0   1
    95    95      0   0  -1
    96    82      0   0   0
    96    83      0   0   0
    96    95      0   0   0
    96    97      0   0   0
    96   109      0   0   0
    96   110      0   0   0
    96    96      0   0   1
    96    96      0   0  -1
    97    83      0   0   0
    97    84      0   0   0
    97    96      0   0   0
    97    98      0   0   0
    97   110      0   0   0
    97   111      0   0   0
    97    97      0   0   1
    97    97      0   0  -1
    98    84      0   0   0
    98    97      0   0   0
    98   111      0   0   0
    98   112      0   0   0
    98    71      0   1   0
    98    85      0   1   0
    98    98      0   0   1
    98    98      0   0  -1
    99    85      0   0   0
    99    86      0   0   0
    99   100      0   0   0
    99   113      0   0   0
    99   112      0  -1   0
    99   126      0  -1   0
    99    99      0   0   1
    99    99      0   0  -1
   100    86      0   0   0
   100    87      0   0   0
   100    99      0   0   0
   100   101      0   0   0
   100   113      0   0   0
   100   114      0   0   0
   100   100      0   0   1
   100   100      0   0  -1
   101    87      0   0   0
   101    88      0   0   0
   101   100      0   0   0
   101   102      0   0   0
   101   114      0   0   0
   101   115      0   0   0
   101   101      0   0   1
   101   101      0   0  -1
   102    88      0   0   0
   102    89      0   0   0
   102   101      0   0   0
   102   103      0   0   0
   102   115      0   0   0
   102   116      0   0   0
   102   102      0   0   1
   102   102      0   0  -1
   103    89      0   0   0
   103    90      0   0   0
   103   102      0   0   0
   103   104      0   0   0
   103   116      0   0   0
   103   117      0   0   0
   103   103      0   0   1
   103   103      0   0  -1
   104    90      0   0   0
   104    91      0   0   0
   104   103      0   0   0
   104   105      0   0   0
   104   117      0   0   0
   104   118      0   0   0
   104   104      0   0   1
   104   104      0   0  -1
   105    91      0   0   0
   105    92      0   0   0
   105   104      0   0   0
   105   106      0   0   0
   105   118      0   0   0
   105   119      0   0   0
   105   105      0   0   1
   105   105      0   0  -1
   106    92      0   0   0
   106    93      0   0   0
   106   105      0   0   0
   106   107      0   0   0
   106   119      0   0   0
   106   120      0   0   0
   106   106      0   0   1
   106   106      0   0  -1
   107    93      0   0   0
   107    94      0   0   0
   107   106      0   0   0
   107   108      0   0   0
   107   120      0   0   0
   107   121      0   0   0
   107   107      0   0   1
   107   107      0   0  -1
   108    94      0   0   0
   108    95      0   0   0
   108   107      0   0   0
   108   109      0   0   0
   108   121      0   0   0
   108   122      0   0   0
   108   108      0   0   1
   108   108      0   0  -1
   109    95      0   0   0
   109    96      0   0   0
   109   108      0   0   0
   109   110      0   0   0
   109   122      0   0   0
   109   123      0   0   0
   109   109      0   0   1
   109   109      0   0  -1
   110    96      0   0   0
   110    97      0   0   0
   110   109      0   0   0
   110   111      0   0   0
   110   123      0   0   0
   110   124      0   0   0
   110   110      0   0   1
   110   110      0   0  -1
   111    97      0   0   0
   111    98      0   0   0
   111   110      0   0   0
   111   112      0   0   0
   111   124      0   0   0
   111   125      0   0   0
   111   111      0   0   1
   111   111      0   0  -1
   112    98      0   0   0
   112   111      0   0   0
   112   125      0   0   0
   112   126      0   0   0
   112    85      0   1   0
   112    99      0   1   0
   112   112      0   0   1
   112   112      0   0  -1
   113    99      0   0   0
   113   100      0   0   0
   113   114      0   0   0
   113   127      0   0   0
   113   126      0  -1   0
   113   140      0  -1   0
   113   113      0   0   1
   113   113      0   0  -1
   114   100      0   0   0
   114   101      0   0   0
   114   113      0   0   0
   114   115      0   0   0
   114   127      0   0   0
   114   128      0   0   0
   114   114      0   0   1
   114   114      0   0  -1
   115   101      0   0   0
   115   102      0   0   0
   115   114      0   0   0
   115   116      0   0   0
   115   128      0   0   0
   115   129      0   0   0
   115   115      0   0   1
   115   115      0   0  -1
   116   102      0   0   0
   116   103      0   0   0
   116   115      0   0   0
   116   117      0   0   0
   116   129      0   0   0
   116   130      0   0   0
   116   116      0   0   1
   116   116      0   0  -1
   117   103      0   0   0
   117   104      0   0   0
   117   116      0   0   0
   117   118      0   0   0
   117   130      0   0   0
   117   131      0   0   0
   117   117      0   0   1
   117   117      0   0  -1
   118   104      0   0   0
   118   105      0   0   0
   118   117      0   0   0
   118   119      0   0   0
   118   131      0   0   0
   118   132      0   0   0
   118   118      0   0   1
   118   118      0   0  -1
   119   105      0   0   0
   119   106      0   0   0
   119   118      0   0   0
   119   120      0   0   0
   119   132      0   0   0
   119   133      0   0   0
   119   119      0   0   1
   119   119      0   0  -1
   120   106      0   0   0
   120   107      0   0   0
   120   119      0   0   0
   120   121      0   0   0
   120   133      0   0   0
   120   134      0   0   0
   120   120      0   0   1
   120   120      0   0  -1
   121   107      0   0   0
   121   108      0   0   0
   121   120      0   0   0
   121   122      0   0   0
   121   134      0   0   0
   121   135      0   0   0
   121   121      0   0   1
   121   121      0   0  -1
   122   108      0   0   0
   122   109      0   0   0
   122   121      0   0   0
   122   123      0   0   0
   122   135      0   0   0
   122   136      0   0   0
   122   122      0   0   1
   122   122      0   0  -1
   123   109      0   0   0
   123   110      0   0   0
   123   122      0   0   0
   123   124      0   0   0
   123   136      0   0   0
   123   137      0   0   0
   123   123      0   0   1
   123   123      0   0  -1
   124   110      0   0   0
   124   111      0   0   0
   124   123      0   0   0
   124   125      0   0   0
   124   137      0   0   0
   124   138      0   0   0
   124   124      0   0   1
   124   124      0   0  -1
   125   111      0   0   0
   125   112      0   0   0
   125   124      0   0   0
   125   126      0   0   0
   125   138      0   0   0
   125   139      0   0   0
   125   125      0   0   1
   125   125      0   0  -1
   126   112      0   0   0
   126   125      0   0   0
   126   139      0   0   0
   126   140      0   0   0
   126    99      0   1   0
   126   113      0   1   0
   126   126      0   0   1
   126   126      0   0  -1
   127   113      0   0   0
   127   114      0   0   0
   127   128      0   0   0
   127   141      0   0   0
   127   140      0  -1   0
   127   154      0  -1   0
   127   127      0   0   1
   127   127      0   0  -1
   128   114      0   0   0
   128   115      0   0   0
   128   127      0   0   0
   128   129      0   0   0
   128   141      0   0   0
   128   142      0   0   0
   128   128      0   0   1
   128   128      0   0  -1
   129   115      0   0   0
   129   116      0   0   0
   129   128      0   0   0
   129   130      0   0   0
   129   142      0   0   0
   129   143      0   0   0
   129   129      0   0   1
   129   129      0   0  -1
   130   116      0   0   0
   130   117      0   0   0
   130   129      0   0   0
   130   131      0   0   0
   130   143      0   0   0
   130   144      0   0   0
   130   130      0   0   1
   130   130      0   0  -1
   131   117      0   0   0
   131   118      0   0   0
   131   130      0   0   0
   131   132      0   0   0
   131   144      0   0   0
   131   145      0   0   0
   131   131      0   0   1
   131   131      0   0  -1
   132   118      0   0   0
   132   119      0   0   0
   132   131      0   0   0
   132   133      0   0   0
   132   145      0   0   0
   132   146      0   0   0
   132   132      0   0   1
   132   132      0   0  -1
   133   119      0   0   0
   133   120      0   0   0
   133   132      0   0   0
   133   134      0   0   0
   133   146      0   0   0
   133   147      0   0   0
   133   133      0   0   1
   133   133      0   0  -1
   134   120      0   0   0
   134   121      0   0   0
   134   133      0   0   0
   134   135      0   0   0
   134   147      0   0   0
   134   148      0   0   0
   134   134      0   0   1
   134   134      0   0  -1
   135   121      0   0   0
   135   122      0   0   0
   135   134      0   0   0
   135   136      0   0   0
   135   148      0   0   0
   135   149      0   0   0
   135   135      0   0   1
   135   135      0   0  -1
   136   122      0   0   0
   136   123      0   0   0
   136   135      0   0   0
   136   137      0   0   0
   136   149      0   0   0
   136   150      0   0   0
   136   136      0   0   1
   136   136      0   0  -1
   137   123      0   0   0
   137   124      0   0   0
   137   136      0   0   0
   137   138      0   0   0
   137   150      0   0   0
   137   151      0   0   0
   137   137      0   0   1
   137   137      0   0  -1
   138   124      0   0   0
   138   125      0   0   0
   138   137      0   0   0
   138   139      0   0   0
   138   151      0   0   0
   138   152      0   0   0
   138   138      0   0   1
   138   138      0   0  -1
   139   125      0   0   0
   139   126      0   0   0
   139   138      0   0   0
   139   140      0   0   0
   139   152      0   0   0
   139   153      0   0   0
   139   139      0   0   1
   139   139      0   0  -1
   140   126      0   0   0
   140   139      0   0   0
   140   153      0   0   0
   140   154      0   0   0
   140   113      0   1   0
   140   127      0   1   0
   140   140      0   0   1
   140   140      0   0  -1
   141   127      0   0   0
   141   128      0   0   0
   141   142      0   0   0
   141   155      0   0   0
   141   154      0  -1   0
   141   168      0  -1   0
   141   141      0   0   1
   141   141      0   0  -1
   142   128      0   0   0
   142   129      0   0   0
   142   141      0   0   0
   142   143      0   0   0
   142   155      0   0   0
   142   156      0   0   0
   142   142      0   0   1
   142   142      0   0  -1
   143   129      0   0   0
   143   130      0   0   0
   143   142      0   0   0
   143   144      0   0   0
   143   156      0   0   0
   143   157      0   0   0
   143   143      0   0   1
   143   143      0   0  -1
   144   130      0   0   0
   144   131      0   0   0
   144   143      0   0   0
   144   145      0   0   0
   144   157      0   0   0
   144   158      0   0   0
   144   144      0   0   1
   144   144      0   0  -1
   145   131      0   0   0
   145   132      0   0   0
   145   144      0   0   0
   145   146      0   0   0
   145   158      0   0   0
   145   159      0   0   0
   145   145      0   0   1
   145   145      0   0  -1
   146   132      0   0   0
   146   133      0   0   0
   146   145      0   0   0
   146   147      0   0   0
   146   159      0   0   0
   146   160      0   0   0
   146   146      0   0   1
   146   146      0   0  -1
   147   133      0   0   0
   147   134      0   0   0
   147   146      0   0   0
   147   148      0   0   0
   147   160      0   0   0
   147   161      0   0   0
   147   147      0   0   1
   147   147      0   0  -1
   148   134      0   0   0
   148   135      0   0   0
   148   147      0   0   0
   148   149      0   0   0
   148   161      0   0   0
   148   162      0   0   0
   148   148      0   0   1
   148   148      0   0  -1
   149   135      0   0   0
   149   136      0   0   0
   149   148      0   0   0
   149   150      0   0   0
   149   162      0   0   0
   149   163      0   0   0
   149   149      0   0   1
   149   149      0   0  -1
   150   136      0   0   0
   150   137      0   0   0
   150   149      0   0   0
   150   151      0   0   0
   150   163      0   0   0
   150   164      0   0   0
   150   150      0   0   1
   150   150      0   0  -1
   151   137      0   0   0
   151   138      0   0   0
   151   150      0   0   0
   151   152      0   0   0
   151   164      0   0   0
   151   165      0   0   0
   151   151      0   0   1
   151   151      0   0  -1
   152   138      0   0   0
   152   139      0   0   0
   152   151      0   0   0
   152   153      0   0   0
   152   165      0   0   0
   152   166      0   0   0
   152   152      0   0   1
   152   152      0   0  -1
   153   139      0   0   0
   153   140      0   0   0
   153   152      0   0   0
   153   154      0   0   0
   153   166      0   0   0
   153   167      0   0   0
   153   153      0   0   1
   153   153      0   0  -1
   154   140      0   0   0
   154   153      0   0   0
   154   167      0   0   0
   154   168      0   0   0
   154   127      0   1   0
   154   141      0   1   0
   154   154      0   0   1
   154   154      0   0  -1
   155   141      0   0   0
   155   142      0   0   0
   155   156      0   0   0
   155   169      0   0   0
   155   168      0  -1   0
   155   182      0  -1   0
   155   155      0   0   1
   155   155      0   0  -1
   156   142      0   0   0
   156   143      0   0   0
   156   155      0   0   0
   156   157      0   0   0
   156   169      0   0   0
   156   170      0   0   0
   156   156      0   0   1
   156   156      0   0  -1
   157   143      0   0   0
   157   144      0   0   0
   157   156      0   0   0
   157   158      0   0   0
   157   170      0   0   0
   157   171      0   0   0
   157   157      0   0   1
   157   157      0   0  -1
   158   144      0   0   0
   158   145      0   0   0
   158   157      0   0   0
   158   159      0   0   0
   158   171      0   0   0
   158   172      0   0   0
   158   158      0   0   1
   158   158      0   0  -1
   159   145      0   0   0
   159   146      0   0   0
   159   158      0   0   0
   159   160      0   0   0
   159   172      0   0   0
   159   173      0   0   0
   159   159      0   0   1
   159   159      0   0  -1
   160   146      0   0   0
   160   147      0   0   0
   160   159      0   0   0
   160   161      0   0   0
   160   173      0   0   0
   160   174      0   0   0
   160   160      0   0   1
   160   160      0   0  -1
   161   147      0   0   0
   161   148      0   0   0
   161   160      0   0   0
   161   162      0   0   0
   161   174      0   0   0
   161   175      0   0   0
   161   161      0   0   1
   161   161      0   0  -1
   162   148      0   0   0
   162   149      0   0   0
   162   161      0   0   0
   162   163      0   0   0
   162   175      0   0   0
   162   176      0   0   0
   162   162      0   0   1
   162   162      0   0  -1
   163   149      0   0   0
   163   150      0   0   0
   163   162      0   0   0
   163   164      0   0   0
   163   176      0   0   0
   163   177      0   0   0
   163   163      0   0   1
   163   163      0   0  -1
   164   150      0   0   0
   164   151      0   0   0
   164   163      0   0   0
   164   165      0   0   0
   164   177      0   0   0
   164   178      0   0   0
   164   164      0   0   1
   164   164      0   0  -1
   165   151      0   0   0
   165   152      0   0   0
   165   164      0   0   0
   165   166      0   0   0
   165   178      0   0   0
   165   179      0   0   0
   165   165      0   0   1
   165   165      0   0  -1
   166   152      0   0   0
   166   153      0   0   0
   166   165      0   0   0
   166   167      0   0   0
   166   179      0   0   0
   166   180      0   0   0
   166   166      0   0   1
   166   166      0   0  -1
   167   153      0   0   0
   167   154      0   0   0
   167   166      0   0   0
   167   168      0   0   0
   167   180      0   0   0
   167   181      0   0   0
   167   167      0   0   1
   167   167      0   0  -1
   168   154      0   0   0
   168   167      0   0   0
   168   181      0   0   0
   168   182      0   0   0
   168   141      0   1   0
   168   155      0   1   0
   168   168      0   0   1
   168   168      0   0  -1
   169   155      0   0   0
   169   156      0   0   0
   169   170      0   0   0
   169   183      0   0   0
   169   182      0  -1   0
   169   196      0  -1   0
   169   169      0   0   1
   169   169      0   0  -1
   170   156      0   0   0
   170   157      0   0   0
   170   169      0   0   0
   170   171      0   0   0
   170   183      0   0   0
   170   184      0   0   0
   170   170      0   0   1
   170   170      0   0  -1
   171   157      0   0   0
   171   158      0   0   0
   171   170      0   0   0
   171   172      0   0   0
   171   184      0   0   0
   171   185      0   0   0
   171   171      0   0   1
   171   171      0   0  -1
   172   158      0   0   0
   172   159      0   0   0
   172   171      0   0   0
   172   173      0   0   0
   172   185      0   0   0
   172   186      0   0   0
   172   172      0   0   1
   172   172      0   0  -1
   173   159      0   0   0
   173   160      0   0   0
   173   172      0   0   0
   173   174      0   0   0
   173   186      0   0   0
   173   187      0   0   0
   173   173      0   0   1
   173   173      0   0  -1
   174   160      0   0   0
   174   161      0   0   0
   174   173      0   0   0
   174   175      0   0   0
   174   187      0   0   0
   174   188      0   0   0
   174   174      0   0   1
   174   174      0   0  -1
   175   161      0   0   0
   175   162      0   0   0
   175   174      0   0   0
   175   176      0   0   0
   175   188      0   0   0
   175   189      0   0   0
   175   175      0   0   1
   175   175      0   0  -1
   176   162      0   0   0
   176   163      0   0   0
   176   175      0   0   0
   176   177      0   0   0
   176   189      0   0   0
   176   190      0   0   0
   176   176      0   0   1
   176   176      0   0  -1
   177   163      0   0   0
   177   164      0   0   0
   177   176      0   0   0
   177   178      0   0   0
   177   190      0   0   0
   177   191      0   0   0
   177   177      0   0   1
   177   177      0   0  -1
   178   164      0   0   0
   178   165      0   0   0
   178   177      0   0   0
   178   179      0   0   0
   178   191      0   0   0
   178   192      0   0   0
   178   178      0   0   1
   178   178      0   0  -1
   179   165      0   0   0
   179   166      0   0   0
   179   178      0   0   0
   179   180      0   0   0
   179   192      0   0   0
   179   193      0   0   0
   179   179      0   0   1
   179   179      0   0  -1
   180   166      0   0   0
   180   167      0   0   0
   180   179      0   0   0
   180   181      0   0   0
   180   193      0   0   0
   180   194      0   0   0
   180   180      0   0   1
   180   180      0   0  -1
   181   167      0   0   0
   181   168      0   0   0
   181   180      0   0   0
   181   182      0   0   0
   181   194      0   0   0
   181   195      0   0   0
   181   181      0   0   1
   181   181      0   0  -1
   182   168      0   0   0
   182   181      0   0   0
   182   195      0   0   0
   182   196      0   0   0
   182   155      0   1   0
   182   169      0   1   0
   182   182      0   0   1
   182   182      0   0  -1
   183   169      0   0   0
   183   170      0   0   0
   183   184      0   0   0
   183     1      1   0   0
   183    14      1  -1   0
   183   196      0  -1   0
   183   183      0   0   1
   183   183      0   0  -1
   184   170      0   0   0
   184   171      0   0   0
   184   183      0   0   0
   184   185      0   0   0
   184     1      1   0   0
   184     2      1   0   0
   184   184      0   0   1
   184   184      0   0  -1
   185   171      0   0   0
   185   172      0   0   0
   185   184      0   0   0
   185   186      0   0   0
   185     2      1   0   0
   185     3      1   0   0
   185   185      0   0   1
   185   185      0   0  -1
   186   172      0   0   0
   186   173      0   0   0
   186   185      0   0   0
   186   187      0   0   0
   186     3      1   0   0
   186     4      1   0   0
   186   186      0   0   1
   186   186      0   0  -1
   187   173      0   0   0
   187   174      0   0   0
   187   186      0   0   0
   187   188      0   0   0
   187     4      1   0   0
   187     5      1   0   0
   187   187      0   0   1
   187   187      0   0  -1
   188   174      0   0   0
   188   175      0   0   0
   188   187      0   0   0
   188   189      0   0   0
   188     5      1   0   0
   188     6      1   0   0
   188   188      0   0   1
   188   188      0   0  -1
   189   175      0   0   0
   189   176      0   0   0
   189   188      0   0   0
   189   190      0   0   0
   189     6      1   0   0
   189     7      1   0   0
   189   189      0   0   1
   189   189      0   0  -1
   190   176      0   0   0
   190   177      0   0   0
   190   189      0   0   0
   190   191      0   0   0
   190     7      1   0   0
   190     8      1   0   0
   190   190      0   0   1
   190   190      0   0  -1
   191   177      0   0   0
   191   178      0   0   0
   191   190      0   0   0
   191   192      0   0   0
   191     8      1   0   0
   191     9      1   0   0
   191   191      0   0   1
   191   191      0   0  -1
   192   178      0   0   0
   192   179      0   0   0
   192   191      0   0   0
   192   193      0   0   0
   192     9      1   0   0
   192    10      1   0   0
   192   192      0   0   1
   192   192      0   0  -1
   193   179      0   0   0
   193   180      0   0   0
   193   192      0   0   0
   193   194      0   0   0
   193    10      1   0   0
   193    11      1   0   0
   193   193      0   0   1
   193   193      0   0  -1
   194   180      0   0   0
   194   181      0   0   0
   194   193      0   0   0
   194   195      0   0   0
   194    11      1   0   0
   194    12      1   0   0
   194   194      0   0   1
   194   194      0   0  -1
   195   181      0   0   0
   195   182      0   0   0
   195   194      0   0   0
   195   196      0   0   0
   195    12      1   0   0
   195    13      1   0   0
   195   195      0   0   1
   195   195      0   0  -1
   196   182      0   0   0
   196   195      0   0   0
   196    13      1   0   0
   196    14      1   0   0
   196   169      0   1   0
   196   183      0   1   0
   196   196      0   0   1
   196   196      0   0  -1
end nnkpts

begin exclude_bands
   4
   1
   2
   3
   4
end exclude_bands
